% Model:              comsol_model_ex6.mph
% Version:            COMSOL 6.4.0.378
% Date:               Jul 23 2026, 10:34
% Dimension:          2
% Nodes:              100
% Expressions:        1
% Description:        Magnetic vector potential, z-component
% Length unit:        mm
% x                       y                        mf.Az (Wb/m)
-90                       -90                      7.474017028396836E-9
-70                       -90                      1.0576290952101001E-7
-50                       -90                      4.299895462505388E-7
-30                       -90                      9.794521589315465E-7
-10.000000000000007       -90                      1.4602612285901526E-6
10.000000000000014        -90                      1.4602573631824139E-6
30                        -90                      9.794476476149335E-7
50                        -90                      4.2998957590317413E-7
70                        -90                      1.0576265974364478E-7
90                        -90                      7.473901833768141E-9
-90                       -70                      -6.225274412500334E-8
-70                       -70                      7.130980631990721E-8
-50                       -70                      1.0048855972963807E-6
-30                       -70                      2.970816395346898E-6
-10.000000000000007       -70                      4.951089795899408E-6
10.000000000000014        -70                      4.950893893617851E-6
30                        -70                      2.9707946096495983E-6
50                        -70                      1.0048964696898013E-6
70                        -70                      7.13031250045981E-8
90                        -70                      -6.22525909412959E-8
-90                       -50                      -3.770043777656907E-7
-70                       -50                      -7.779394210615832E-7
-50                       -50                      2.821084615712375E-7
-30                       -50                      0.001182647728996429
-10.000000000000007       -50                      0.004138397642242142
10.000000000000014        -50                      0.004139264792666967
30                        -50                      0.0011828045517525228
50                        -50                      2.822355097859629E-7
70                        -50                      -7.779476160818929E-7
90                        -50                      -3.770006418176733E-7
-90                       -30                      -9.808480182979272E-7
-70                       -30                      -2.8796411111896194E-6
-50                       -30                      -8.561251231460981E-4
-30                       -30                      6.888406469185398E-5
-10.000000000000007       -30                      0.011295058768243828
10.000000000000014        -30                      0.011295027404879834
30                        -30                      6.988575809909573E-5
50                        -30                      -8.56168195461181E-4
70                        -30                      -2.8796621236063956E-6
90                        -30                      -9.808493413405533E-7
-90                       -10.000000000000007      -1.5678465794795603E-6
-70                       -10.000000000000007      -5.414201522427502E-6
-50                       -10.000000000000007      -0.004245996670206189
-30                       -10.000000000000007      -0.01121703256757244
-10.000000000000007       -10.000000000000007      3.8704923048303726E-5
10.000000000000014        -10.000000000000007      3.7658757464686065E-5
30                        -10.000000000000007      -0.011217031282850341
50                        -10.000000000000007      -0.0042463601400640994
70                        -10.000000000000007      -5.414211597996456E-6
90                        -10.000000000000007      -1.5678313412788514E-6
-90                       10.000000000000014       -1.5678428755255484E-6
-70                       10.000000000000014       -5.414214708128429E-6
-50                       10.000000000000014       -0.004246144239692305
-30                       10.000000000000014       -0.011217037323061892
-10.000000000000007       10.000000000000014       4.053886960690646E-5
10.000000000000014        10.000000000000014       4.0849866118491246E-5
30                        10.000000000000014       -0.011217009992469778
50                        10.000000000000014       -0.004245980605963827
70                        10.000000000000014       -5.414166442410569E-6
90                        10.000000000000014       -1.5678322304305147E-6
-90                       30                       -9.80856483508686E-7
-70                       30                       -2.8796688864446344E-6
-50                       30                       -8.56117927299336E-4
-30                       30                       6.937227227995406E-5
-10.000000000000007       30                       0.011295050049466427
10.000000000000014        30                       0.01129501546893491
30                        30                       6.8916437889831E-5
50                        30                       -8.561622341026388E-4
70                        30                       -2.879635807202095E-6
90                        30                       -9.8084353143869E-7
-90                       50                       -3.770011459982813E-7
-70                       50                       -7.779483125127405E-7
-50                       50                       2.822025534750713E-7
-30                       50                       0.0011829783236639215
-10.000000000000007       50                       0.00413966309317516
10.000000000000014        50                       0.004138736469126852
30                        50                       0.0011827325599566257
50                        50                       2.8211358172559955E-7
70                        50                       -7.77927054912728E-7
90                        50                       -3.7700276373821395E-7
-90                       70                       -6.225195177344246E-8
-70                       70                       7.130078881985175E-8
-50                       70                       1.0048928511022031E-6
-30                       70                       2.9708058165308664E-6
-10.000000000000007       70                       4.950909641599208E-6
10.000000000000014        70                       4.9510488415378635E-6
30                        70                       2.9707836170153006E-6
50                        70                       1.0048927116625069E-6
70                        70                       7.131699130799302E-8
90                        70                       -6.22530509623249E-8
-90                       90                       7.470322279828794E-9
-70                       90                       1.0576463927634649E-7
-50                       90                       4.2998886327818786E-7
-30                       90                       9.794484907949252E-7
-10.000000000000007       90                       1.4602557655170314E-6
10.000000000000014        90                       1.460264700646877E-6
30                        90                       9.794526949259241E-7
50                        90                       4.2999219994873734E-7
70                        90                       1.0576452751641993E-7
90                        90                       7.472440775719806E-9
