% Model:              comsol_model_ex6.mph
% Version:            COMSOL 6.4.0.378
% Date:               Jul 23 2026, 10:35
% Dimension:          2
% Nodes:              100
% Expressions:        1
% Description:        Magnetic flux density norm
% Length unit:        mm
% x                       y                        mf.normB (T)
-90                       -90                      1.4367323584076742E-6
-70                       -90                      1.2942619293588778E-5
-50                       -90                      4.688113511870501E-5
-30                       -90                      1.0268343866710955E-4
-10.000000000000007       -90                      1.5108352598176727E-4
10.000000000000014        -90                      1.5107794035718955E-4
30                        -90                      1.0269513290502247E-4
50                        -90                      4.687837642814632E-5
70                        -90                      1.2949974882742483E-5
90                        -90                      1.4434499663327952E-6
-90                       -70                      9.406298030546386E-6
-70                       -70                      2.7897048586690126E-5
-50                       -70                      7.486462809289366E-5
-30                       -70                      1.507858094917019E-4
-10.000000000000007       -70                      2.2245806953279337E-4
10.000000000000014        -70                      2.2223824235457332E-4
30                        -70                      1.509498888641522E-4
50                        -70                      7.484737281016968E-5
70                        -70                      2.7849021369167636E-5
90                        -70                      9.392220156882E-6
-90                       -50                      4.229028875770921E-5
-70                       -50                      7.279543167391028E-5
-50                       -50                      1.5788651110358156E-4
-30                       -50                      0.2078332549384214
-10.000000000000007       -50                      0.37683354666644225
10.000000000000014        -50                      0.3763354587807271
30                        -50                      0.20768516189378253
50                        -50                      1.5776344795346154E-4
70                        -50                      7.289528815447215E-5
90                        -50                      4.227357226151694E-5
-90                       -30                      1.0373884914005485E-4
-70                       -30                      1.5748872422002724E-4
-50                       -30                      0.1491609946684454
-30                       -30                      0.3575431524605849
-10.000000000000007       -30                      0.7813005428555745
10.000000000000014        -30                      0.7813018793773473
30                        -30                      0.3564872909995919
50                        -30                      0.1491026916091248
70                        -30                      1.5779597181924635E-4
90                        -30                      1.0374086898682516E-4
-90                       -10.000000000000007      1.6324904400838138E-4
-70                       -10.000000000000007      2.5824854836283196E-4
-50                       -10.000000000000007      0.3364141034166095
-30                       -10.000000000000007      0.781261471861046
-10.000000000000007       -10.000000000000007      1.5616309854492436
10.000000000000014        -10.000000000000007      1.5593248978749814
30                        -10.000000000000007      0.7812871303221425
50                        -10.000000000000007      0.33648190949608753
70                        -10.000000000000007      2.5819227218433174E-4
90                        -10.000000000000007      1.6323616530678967E-4
-90                       10.000000000000014       1.6324920245689464E-4
-70                       10.000000000000014       2.5826752099501564E-4
-50                       10.000000000000014       0.3361996863309034
-30                       10.000000000000014       0.7812804756567431
-10.000000000000007       10.000000000000014       1.5652912215276793
10.000000000000014        10.000000000000014       1.5614403989558718
30                        10.000000000000014       0.7812863153417114
50                        10.000000000000014       0.3371823896557177
70                        10.000000000000014       2.5737275696318106E-4
90                        10.000000000000014       1.6323945022519428E-4
-90                       30                       1.0374054485236855E-4
-70                       30                       1.577414530396576E-4
-50                       30                       0.14918838748550736
-30                       30                       0.3557866553947159
-10.000000000000007       30                       0.7813188375364565
10.000000000000014        30                       0.7813500944549927
30                        30                       0.35708773498260254
50                        30                       0.14911195812262742
70                        30                       1.5747495430480077E-4
90                        30                       1.0373088728678641E-4
-90                       50                       4.227051419317787E-5
-70                       50                       7.289559349292783E-5
-50                       50                       1.5777163347905572E-4
-30                       50                       0.2079284912835437
-10.000000000000007       50                       0.376991532439806
10.000000000000014        50                       0.3763064507568372
30                        50                       0.20852005788470424
50                        50                       1.5781235932390314E-4
70                        50                       7.285665381852354E-5
90                        50                       4.227825272772586E-5
-90                       70                       9.403026436343042E-6
-70                       70                       2.7858970186654284E-5
-50                       70                       7.484768180520506E-5
-30                       70                       1.5097189714834738E-4
-10.000000000000007       70                       2.2221921663483877E-4
10.000000000000014        70                       2.2239594973117246E-4
30                        70                       1.5091557210653267E-4
50                        70                       7.486727429887406E-5
70                        70                       2.7896090014701525E-5
90                        70                       9.406688369976325E-6
-90                       90                       1.4479616033534638E-6
-70                       90                       1.295928766955135E-5
-50                       90                       4.6883131301108845E-5
-30                       90                       1.0269114473205301E-4
-10.000000000000007       90                       1.510739640530595E-4
10.000000000000014        90                       1.5107620290294373E-4
30                        90                       1.0268013473668959E-4
50                        90                       4.688224962903682E-5
70                        90                       1.2940493447464406E-5
90                        90                       1.4836835759112507E-6
