% Model:              comsol_model_ex3.mph
% Version:            COMSOL 6.4.0.378
% Date:               Jul 22 2026, 09:59
% Dimension:          2
% Nodes:              81
% Expressions:        1
% Description:        Magnetic vector potential, z-component
% Length unit:        m
% x                       y                        mf.Az (Wb/m)
-0.05                     -0.05                    1.376883338195257E-6
-0.030000000000000002     -0.05                    4.785197147436979E-6
-0.010000000000000002     -0.05                    1.0242503243091336E-5
0.009999999999999995      -0.05                    1.8985990419760394E-5
0.03                      -0.05                    3.100676053811071E-5
0.05                      -0.05                    4.2844733053517815E-5
0.06999999999999999       -0.05                    4.5748180011019596E-5
0.09000000000000001       -0.05                    3.378209281818308E-5
0.11                      -0.05                    1.2089505372893672E-5
-0.05                     -0.029900000000000003    3.509607179949069E-6
-0.030000000000000002     -0.029900000000000003    1.2337061757083096E-5
-0.010000000000000002     -0.029900000000000003    2.7310507532838172E-5
0.009999999999999995      -0.029900000000000003    5.333315732271578E-5
0.03                      -0.029900000000000003    9.226225576491343E-5
0.05                      -0.029900000000000003    1.3819082534023033E-4
0.06999999999999999       -0.029900000000000003    1.5565650467464805E-4
0.09000000000000001       -0.029900000000000003    1.1142738505155499E-4
0.11                      -0.029900000000000003    3.81657285308193E-5
-0.05                     -0.009800000000000003    3.956404830249555E-6
-0.030000000000000002     -0.009800000000000003    1.39815729816137E-5
-0.010000000000000002     -0.009800000000000003    3.2414207419605985E-5
0.009999999999999995      -0.009800000000000003    7.42868237373746E-5
0.03                      -0.009800000000000003    1.414539531520105E-4
0.05                      -0.009800000000000003    2.543228366096223E-4
0.06999999999999999       -0.009800000000000003    3.510366882548214E-4
0.09000000000000001       -0.009800000000000003    2.115837685556488E-4
0.11                      -0.009800000000000003    6.310179005857331E-5
-0.05                     0.010299999999999997     2.496966252163085E-6
-0.030000000000000002     0.010299999999999997     8.581500894807012E-6
-0.010000000000000002     0.010299999999999997     1.733196480031368E-5
0.009999999999999995      0.010299999999999997     0.001869959620893825
0.03                      0.010299999999999997     0.0056857517809974665
0.05                      0.010299999999999997     0.004564968994752202
0.06999999999999999       0.010299999999999997     8.665632316999187E-4
0.09000000000000001       0.010299999999999997     2.602082115900284E-4
0.11                      0.010299999999999997     5.9703052139244034E-5
-0.05                     0.030399999999999996     -5.422278817589528E-8
-0.030000000000000002     0.030399999999999996     -1.824627039885065E-7
-0.010000000000000002     0.030399999999999996     -3.4533085847825235E-7
0.009999999999999995      0.030399999999999996     -1.329719469699299E-4
0.03                      0.030399999999999996     -4.760831436300953E-4
0.05                      0.030399999999999996     -4.067708289904617E-4
0.06999999999999999       0.030399999999999996     -5.628930116750913E-5
0.09000000000000001       0.030399999999999996     -7.939225484645984E-6
0.11                      0.030399999999999996     -1.5437483026336603E-6
-0.05                     0.0505                   -2.5834700318708906E-6
-0.030000000000000002     0.0505                   -8.89176152250968E-6
-0.010000000000000002     0.0505                   -1.8080002754996626E-5
0.009999999999999995      0.0505                   -0.0017472288824306197
0.03                      0.0505                   -0.005224677680257705
0.05                      0.0505                   -0.004180718367596624
0.06999999999999999       0.0505                   -8.396624366028241E-4
0.09000000000000001       0.0505                   -2.6265871589728235E-4
0.11                      0.0505                   -6.0940552705136734E-5
-0.05                     0.0706                   -3.9775624833440625E-6
-0.030000000000000002     0.0706                   -1.4061445631164876E-5
-0.010000000000000002     0.0706                   -3.2588449238627764E-5
0.009999999999999995      0.0706                   -7.383200142723824E-5
0.03                      0.0706                   -1.4007250784997535E-4
0.05                      0.0706                   -2.498032486113459E-4
0.06999999999999999       0.0706                   -3.394655982490877E-4
0.09000000000000001       0.0706                   -2.0741043856593552E-4
0.11                      0.0706                   -6.236274702097121E-5
-0.05                     0.09069999999999999      -3.451802129406232E-6
-0.030000000000000002     0.09069999999999999      -1.2127284871985668E-5
-0.010000000000000002     0.09069999999999999      -2.6793735237790605E-5
0.009999999999999995      0.09069999999999999      -5.214991900156849E-5
0.03                      0.09069999999999999      -8.99176090756954E-5
0.05                      0.09069999999999999      -1.3399285019345433E-4
0.06999999999999999       0.09069999999999999      -1.5037326949153703E-4
0.09000000000000001       0.09069999999999999      -1.0792044123914504E-4
0.11                      0.09069999999999999      -3.7078343422689496E-5
-0.05                     0.1108                   -1.2705582778885044E-6
-0.030000000000000002     0.1108                   -4.414575181380394E-6
-0.010000000000000002     0.1108                   -9.4431096526167E-6
0.009999999999999995      0.1108                   -1.74879030956535E-5
0.03                      0.1108                   -2.8528226764159627E-5
0.05                      0.1108                   -3.9364279835604184E-5
0.06999999999999999       0.1108                   -4.199506538332573E-5
0.09000000000000001       0.1108                   -3.102215840819155E-5
0.11                      0.1108                   -1.110921587490404E-5
