% Model:              comsol_model_ex3.mph
% Version:            COMSOL 6.4.0.378
% Date:               Jul 22 2026, 09:59
% Dimension:          2
% Nodes:              81
% Expressions:        1
% Description:        Magnetic flux density norm
% Length unit:        m
% x                       y                        mf.normB (T)
-0.05                     -0.05                    1.9479885134630735E-4
-0.030000000000000002     -0.05                    5.0673385491981E-4
-0.010000000000000002     -0.05                    0.0010551317478919805
0.009999999999999995      -0.05                    0.00194295349697482
0.03                      -0.05                    0.0031654421616318026
0.05                      -0.05                    0.004383170157775078
0.06999999999999999       -0.05                    0.004712235213269608
0.09000000000000001       -0.05                    0.003578407994724511
0.11                      -0.05                    0.0017106109555404872
-0.05                     -0.029900000000000003    3.720946118924621E-4
-0.030000000000000002     -0.029900000000000003    6.095202657278427E-4
-0.010000000000000002     -0.029900000000000003    0.0011763970789881518
0.009999999999999995      -0.029900000000000003    0.002190319991634043
0.03                      -0.029900000000000003    0.003683133898137051
0.05                      -0.029900000000000003    0.005662422801510298
0.06999999999999999       -0.029900000000000003    0.00671365153463508
0.09000000000000001       -0.029900000000000003    0.005511817722150468
0.11                      -0.029900000000000003    0.004047377450586714
-0.05                     -0.009800000000000003    4.1294418106051147E-4
-0.030000000000000002     -0.009800000000000003    6.451210887042952E-4
-0.010000000000000002     -0.009800000000000003    0.001367355867220913
0.009999999999999995      -0.009800000000000003    0.002794611985284102
0.03                      -0.009800000000000003    0.004492333469296479
0.05                      -0.009800000000000003    0.009356123656593078
0.06999999999999999       -0.009800000000000003    0.015026510732176628
0.09000000000000001       -0.009800000000000003    0.009818604246187258
0.11                      -0.009800000000000003    0.006590231905587501
-0.05                     0.010299999999999997     2.807966007748037E-4
-0.030000000000000002     0.010299999999999997     5.358593930594356E-4
-0.010000000000000002     0.010299999999999997     0.00104019903605071
0.009999999999999995      0.010299999999999997     0.2667559204159429
0.03                      0.010299999999999997     0.5837898206736758
0.05                      0.010299999999999997     0.530442232628465
0.06999999999999999       0.010299999999999997     0.057146869674491056
0.09000000000000001       0.010299999999999997     0.016390000296683215
0.11                      0.010299999999999997     0.006714237782832039
-0.05                     0.030399999999999996     1.3553372763106122E-4
-0.030000000000000002     0.030399999999999996     4.558062896364909E-4
-0.010000000000000002     0.030399999999999996     8.627387461436092E-4
0.009999999999999995      0.030399999999999996     0.33224111976433846
0.03                      0.030399999999999996     1.190498323043497
0.05                      0.030399999999999996     1.0175892248680043
0.06999999999999999       0.030399999999999996     0.14105241604223842
0.09000000000000001       0.030399999999999996     0.019871369960798097
0.11                      0.030399999999999996     0.0038662253707214874
-0.05                     0.0505                   2.883325042378611E-4
-0.030000000000000002     0.0505                   5.413578394371522E-4
-0.010000000000000002     0.0505                   0.0010603486181252277
0.009999999999999995      0.0505                   0.25617424057581417
0.03                      0.0505                   0.5739900715090073
0.05                      0.0505                   0.5085487148452665
0.06999999999999999       0.0505                   0.05396079885206835
0.09000000000000001       0.0505                   0.016130453122752197
0.11                      0.0505                   0.006805489606356544
-0.05                     0.0706                   4.150752581559648E-4
-0.030000000000000002     0.0706                   6.469014190878367E-4
-0.010000000000000002     0.0706                   0.0013605004485447226
0.009999999999999995      0.0706                   0.0027603543391494997
0.03                      0.0706                   0.004467248413034853
0.05                      0.0706                   0.009164955492192635
0.06999999999999999       0.0706                   0.014359524442872121
0.09000000000000001       0.0706                   0.009592187246021906
0.11                      0.0706                   0.006510722525048496
-0.05                     0.09069999999999999      3.6678979099934715E-4
-0.030000000000000002     0.09069999999999999      6.055822591120676E-4
-0.010000000000000002     0.09069999999999999      0.0011697864435134889
0.009999999999999995      0.09069999999999999      0.002175036619921038
0.03                      0.09069999999999999      0.003652538660137486
0.05                      0.09069999999999999      0.005578124858962642
0.06999999999999999       0.09069999999999999      0.006573277697071282
0.09000000000000001       0.09069999999999999      0.005396164146055446
0.11                      0.09069999999999999      0.00394112498597218
-0.05                     0.1108                   1.8775135164693382E-4
-0.030000000000000002     0.1108                   5.03862235950903E-4
-0.010000000000000002     0.1108                   0.0010523851479700417
0.009999999999999995      0.1108                   0.0019380443071617879
0.03                      0.1108                   0.003155566650137361
0.05                      0.1108                   0.004362830912842361
0.06999999999999999       0.1108                   0.004681504621781159
0.09000000000000001       0.1108                   0.0035414983908312677
0.11                      0.1108                   0.0016416944437849972
